file 1782735 1606023897                                         
version 2
run Tictoc15-0-20201122-05:29:18-912
attr configname Tictoc15
attr datetime 20201122-05:29:18
attr experiment Tictoc15
attr inifile omnetpp.ini
attr iterationvars ""
attr iterationvarsf ""
attr measurement ""
attr network Tictoc15
attr processid 912
attr repetition 0
attr replication #0
attr resultdir results
attr runnumber 0
attr seedset 0

vector 0 Tictoc15.tic[5] HopCount ETV
vector 1 Tictoc15.tic[0] HopCount ETV
vector 2 Tictoc15.tic[3] HopCount ETV
vector 3 Tictoc15.tic[4] HopCount ETV
vector 4 Tictoc15.tic[1] HopCount ETV
vector 5 Tictoc15.tic[2] HopCount ETV
0	582 4490 18 15852 1.7 1585.1 279 1 78 3646 87524
1	5072 4014 29 15661 2.8 1566 256 1 95 3458 93582
2	9086 4033 74 15772 7.3 1577.1 249 1 129 3649 105603
3	13119 4053 77 15851 7.6 1585 265 1 23 906 7054
4	17172 4260 140 15854 13.9 1585.3 270 1 39 1137 12689
5	21432 4094 145 15869 14.4 1586.8 258 1 49 3072 61616
0	25526 294863 15906 910198 1590.5 91019.7 15299 1 110 190754 4566916
1	320389 288481 15897 910285 1589.6 91028.4 15278 1 131 192746 4754596
2	608870 299183 15920 910336 1591.9 91033.5 15514 1 134 196104 4856660
3	908053 288598 15921 910287 1592 91028.6 15581 1 43 60976 559976
4	1196651 292200 15918 910304 1591.7 91030.3 15444 1 46 58230 520412
5	1488851 293883 15915 910319 1591.4 91031.8 15570 1 104 195657 4752875

